# vtk DataFile Version 2.0

ASCII
DATASET RECTILINEAR_GRID
DIMENSIONS 5 4 3
X_COORDINATES 5 double
0.0 4.0 8.0 12.0 16.0
Y_COORDINATES 4 double
0.0 3.0 6.0 9.0
Z_COORDINATES 3 double
0.0 2.0 4.0
CELL_DATA 24
SCALARS s double 1
LOOKUP_TABLE default
4.5
8.5
12.5
16.5
7.5
11.5
15.5
19.5
10.5
14.5
18.5
22.5
6.5
10.5
14.5
18.5
9.5
13.5
17.5
21.5
12.5
16.5
20.5
24.5