# vtk DataFile Version 2.0

ASCII
DATASET RECTILINEAR_GRID
DIMENSIONS 5 4 3
X_COORDINATES 5 double
0.0 4.0 8.0 12.0 16.0
Y_COORDINATES 4 double
0.0 3.0 6.0 9.0
Z_COORDINATES 3 double
0.0 2.0 4.0
CELL_DATA 24
VECTORS s double
2.0 1.5 1.0
6.0 1.5 1.0
10.0 1.5 1.0
14.0 1.5 1.0
2.0 4.5 1.0
6.0 4.5 1.0
10.0 4.5 1.0
14.0 4.5 1.0
2.0 7.5 1.0
6.0 7.5 1.0
10.0 7.5 1.0
14.0 7.5 1.0
2.0 1.5 3.0
6.0 1.5 3.0
10.0 1.5 3.0
14.0 1.5 3.0
2.0 4.5 3.0
6.0 4.5 3.0
10.0 4.5 3.0
14.0 4.5 3.0
2.0 7.5 3.0
6.0 7.5 3.0
10.0 7.5 3.0
14.0 7.5 3.0