# vtk DataFile Version 2.0

ASCII
DATASET POLYDATA
POINTS 30 double
2.0 1.73205080757 0.0
1.0 2.30940107676 0.0
-2.22044604925e-16 1.73205080757 0.0
0.0 0.57735026919 0.0
1.0 0.0 0.0
2.0 0.57735026919 0.0
4.0 1.73205080757 0.0
3.0 2.30940107676 0.0
3.0 0.0 0.0
4.0 0.57735026919 0.0
6.0 1.73205080757 0.0
5.0 2.30940107676 0.0
5.0 0.0 0.0
6.0 0.57735026919 0.0
3.0 3.46410161514 0.0
2.0 4.04145188433 0.0
1.0 3.46410161514 0.0
5.0 3.46410161514 0.0
4.0 4.04145188433 0.0
7.0 3.46410161514 0.0
6.0 4.04145188433 0.0
7.0 2.30940107676 0.0
4.0 5.19615242271 0.0
3.0 5.7735026919 0.0
2.0 5.19615242271 0.0
6.0 5.19615242271 0.0
5.0 5.7735026919 0.0
8.0 5.19615242271 0.0
7.0 5.7735026919 0.0
8.0 4.04145188433 0.0
POLYGONS 9 63
6 0 1 2 3 4 5
6 6 7 0 5 8 9
6 10 11 6 9 12 13
6 14 15 16 1 0 7
6 17 18 14 7 6 11
6 19 20 17 11 10 21
6 22 23 24 15 14 18
6 25 26 22 18 17 20
6 27 28 25 20 19 29
CELL_DATA 9
SCALARS s double 1
LOOKUP_TABLE default
2.15470053838
4.15470053838
6.15470053838
4.88675134595
6.88675134595
8.88675134595
7.61880215352
9.61880215352
11.6188021535