# vtk DataFile Version 2.0

ASCII
DATASET POLYDATA
POINTS 30 double
2.0 1.7320508075688774 0.0
1.0 2.3094010767585034 0.0
-2.220446049250313e-16 1.7320508075688774 0.0
0.0 0.5773502691896257 0.0
0.9999999999999998 0.0 0.0
1.9999999999999998 0.5773502691896253 0.0
4.0 1.7320508075688774 0.0
3.0 2.3094010767585034 0.0
3.0 0.0 0.0
4.0 0.5773502691896253 0.0
6.0 1.7320508075688774 0.0
5.0 2.3094010767585034 0.0
5.0 0.0 0.0
6.0 0.5773502691896253 0.0
3.0 3.464101615137755 0.0
2.0 4.041451884327381 0.0
0.9999999999999998 3.464101615137755 0.0
5.0 3.464101615137755 0.0
4.0 4.041451884327381 0.0
7.0 3.464101615137755 0.0
6.0 4.041451884327381 0.0
7.0 2.309401076758503 0.0
4.0 5.196152422706632 0.0
3.0 5.773502691896257 0.0
1.9999999999999998 5.196152422706632 0.0
6.0 5.196152422706632 0.0
5.0 5.773502691896257 0.0
8.0 5.196152422706632 0.0
7.0 5.773502691896257 0.0
8.0 4.04145188432738 0.0
POLYGONS 9 63
6 0 1 2 3 4 5
6 6 7 0 5 8 9
6 10 11 6 9 12 13
6 14 15 16 1 0 7
6 17 18 14 7 6 11
6 19 20 17 11 10 21
6 22 23 24 15 14 18
6 25 26 22 18 17 20
6 27 28 25 20 19 29
CELL_DATA 9
SCALARS s double 1
LOOKUP_TABLE default
2.1547005383792515
4.1547005383792515
6.1547005383792515
4.886751345948129
6.886751345948129
8.886751345948129
7.618802153517006
9.618802153517006
11.618802153517006